##############################################################################
#                                                                            #
# Ge-Pr            # PrGe ht                                       #  260404 #
#                                                                            #
##############################################################################
#                                                                            #
#                           Pearson's Crystal Data                           #
#      Crystal Structure Database for Inorganic Compounds (on DVD)           #
#                              Release 2023/24                               #
#                  Editors: Pierre Villars and Karin Cenzual                 #
#                                                                            #
#   Copyright (c) ASM International & Material Phases Data System (MPDS),    #
# Switzerland & National Institute for Materials Science (NIMS), Japan, 2023 #
#                   All rights reserved. Version 2023.07                     #
#                                                                            #
#   This copy of Pearson's Crystal Data is licensed to:                      #
#   Hunter College - City University of New York                             #
#                                                                            #
##############################################################################

data_260404
_audit_creation_date                     2024-02-18
_audit_creation_method
;
Pearson's Crystal Data browser
;
#_database_code_PCD                      260404
_database_code_PDF                       04-001-2029

# Entry summary

_chemical_formula_structural             'Pr Ge'
_chemical_formula_sum                    'Ge Pr'
_chemical_name_mineral                   ?
_chemical_compound_source                ?
_chemical_name_structure_type            FeB-b,oP8,62
_chemical_formula_weight                 213.5

# Bibliographic data

_publ_section_title
;
Ferromagnetism of NdGe and PrGe studied by neutron diffraction and magnetic measurements
;
_journal_coden_ASTM                      JCOMAH
_journal_name_full                       'J. Less-Common Met.'
_journal_year                            1985
_journal_volume                          111
_journal_page_first                      125
_journal_page_last                       138
_journal_language                        English
loop_
 _publ_author_name
 _publ_author_address
''
;
;

# Standardized crystallographic data

_cell_length_a                           8.278
_cell_length_b                           4.031
_cell_length_c                           5.971
_cell_angle_alpha                        90
_cell_angle_beta                         90
_cell_angle_gamma                        90
_cell_volume                             199.24
_cell_formula_units_Z                    4
_space_group_IT_number                   62
_space_group_name_H-M_alt                'P n m a'
loop_
 _space_group_symop_id
 _space_group_symop_operation_xyz
 1 'x, y, z'
 2 '1/2-x, -y, 1/2+z'
 3 '1/2-x, 1/2+y, 1/2+z'
 4 '-x, -y, -z'
 5 '-x, 1/2+y, -z'
 6 '1/2+x, 1/2-y, 1/2-z'
 7 '1/2+x, y, 1/2-z'
 8 'x, 1/2-y, z'
loop_
 _atom_type_symbol
 Ge
 Pr
loop_
 _atom_site_label
 _atom_site_type_symbol
 _atom_site_symmetry_multiplicity
 _atom_site_Wyckoff_symbol
 _atom_site_fract_x
 _atom_site_fract_y
 _atom_site_fract_z
 _atom_site_occupancy
 Ge Ge 4 c 0.0371 0.25 0.134 1
 Pr Pr 4 c 0.183 0.25 0.613 1


_exptl_crystal_colour                    ?
_exptl_crystal_density_meas              ?
_exptl_crystal_density_diffrn            7.12
_cell_measurement_temperature            8
_cell_measurement_radiation              neutrons
_cell_measurement_wavelength             2.3236
_pd_proc_wavelength                      2.3236
_cell_measurement_reflns_used            ?
_diffrn_ambient_temperature              8
_diffrn_measurement_device               'automatic diffractometer'
_diffrn_measurement_device_type
'Switzerland, Wurenlingen, Paul Scherrer Institute, SAPHIR reactor'
_diffrn_radiation_type                   neutrons
_diffrn_radiation_wavelength             2.3415
_diffrn_reflns_number                    ?
_exptl_absorpt_coefficient_mu            ?
_exptl_absorpt_correction_type           ?
_computing_structure_solution            ?
_refine_ls_number_parameters             ?
_refine_ls_number_reflns                 ?
_refine_ls_R_factor_gt                   ?
_refine_ls_wR_factor_gt                  ?
_pd_proc_ls_proof_R_factor               0.11
_pd_proc_ls_proof_wR_factor              0.18
_refine_ls_R_I_factor                    ?

# Published diffraction lines

loop_
 _refln_index_h
 _refln_index_k
 _refln_index_l
 _refln_d_spacing
 _refln_intensity_meas
 1 0 1 4.85 2545
 2 0 0 4.142 2461
 2 0 1 3.403 879
 0 1 1 3.342 791
 1 1 1 3.099 1277
 2 1 0 2.889 2953
 1 0 2 2.81 2906
 2 1 1 2.601 4925
 3 0 1 2.506 3263
 1 1 2 2.305 5455
 3 1 1 2.128 1795
 4 0 0 2.07 527
 3 0 2 2.027 490
 0 2 0 2.016 2009
 4 0 1 1.956 1731
 1 0 3 1.936 759
 1 2 1 1.861 818
 4 1 0 1.842 1067
 2 2 0 1.813 569
 3 1 2 1.811 1455
 2 0 3 1.794 285
 0 1 3 1.785 443
 4 1 1 1.756 691
 1 1 3 1.745 293
 2 1 3 1.639 2025
 1 2 2 1.638 1588
 3 0 3 1.615 1080
 5 0 1 1.596 182
 3 2 1 1.571 2489
 3 1 3 1.499 1066
 0 0 4 1.493 1629
 5 1 1 1.484 2024
 5 0 2 1.448 705
 4 2 0 1.444 364
 4 0 3 1.435 1228
 3 2 2 1.429 501

# End of data set 260404
